LAMMPS data file Created by LigParGen - (Written by Leela S. Dodda)

      66 atoms
      68 bonds
     124 angles
     198 dihedrals
      34 impropers
 
      66 atom types
      68 bond types
     124 angle types
     198 dihedral types
      34 improper types
 
   -4.197190    45.802810 xlo xhi
   -7.536810    42.463190 ylo yhi
   -0.928560    49.071440 zlo zhi

Masses

       1     15.999  
       2     12.011  
       3     12.011  
       4     15.999  
       5     12.011  
       6     15.999  
       7     12.011  
       8     12.011  
       9     15.999  
      10     12.011  
      11     15.999  
      12     12.011  
      13     12.011  
      14     15.999  
      15     12.011  
      16     15.999  
      17     12.011  
      18     15.999  
      19     15.999  
      20     12.011  
      21     12.011  
      22     15.999  
      23     12.011  
      24     15.999  
      25     12.011  
      26     15.999  
      27     12.011  
      28     15.999  
      29     12.011  
      30     15.999  
      31     12.011  
      32     15.999  
      33     12.011  
      34     15.999  
      35      1.008  
      36      1.008  
      37      1.008  
      38      1.008  
      39      1.008  
      40      1.008  
      41      1.008  
      42      1.008  
      43      1.008  
      44      1.008  
      45      1.008  
      46      1.008  
      47      1.008  
      48      1.008  
      49      1.008  
      50      1.008  
      51      1.008  
      52      1.008  
      53      1.008  
      54      1.008  
      55      1.008  
      56      1.008  
      57      1.008  
      58      1.008  
      59      1.008  
      60      1.008  
      61      1.008  
      62      1.008  
      63      1.008  
      64      1.008  
      65      1.008  
      66      1.008  

Pair Coeffs 

       1      0.170  3.1200000 
       2      0.066  3.5000000 
       3      0.066  3.5000000 
       4      0.140  2.9000000 
       5      0.066  3.5000000 
       6      0.140  2.9000000 
       7      0.066  3.5000000 
       8      0.066  3.5000000 
       9      0.140  2.9000000 
      10      0.066  3.5000000 
      11      0.140  2.9000000 
      12      0.066  3.5000000 
      13      0.066  3.5000000 
      14      0.170  3.1200000 
      15      0.066  3.5000000 
      16      0.170  3.1200000 
      17      0.066  3.5000000 
      18      0.170  3.1200000 
      19      0.140  2.9000000 
      20      0.066  3.5000000 
      21      0.066  3.5000000 
      22      0.170  3.1200000 
      23      0.066  3.5000000 
      24      0.170  3.1200000 
      25      0.066  3.5000000 
      26      0.170  3.1200000 
      27      0.066  3.5000000 
      28      0.170  3.1200000 
      29      0.066  3.5000000 
      30      0.170  3.1200000 
      31      0.066  3.5000000 
      32      0.170  3.1200000 
      33      0.066  3.5000000 
      34      0.170  3.1200000 
      35      0.000  0.0000000 
      36      0.030  2.5000000 
      37      0.030  2.5000000 
      38      0.030  2.5000000 
      39      0.030  2.5000000 
      40      0.030  2.5000000 
      41      0.030  2.5000000 
      42      0.030  2.5000000 
      43      0.030  2.5000000 
      44      0.030  2.5000000 
      45      0.030  2.5000000 
      46      0.000  0.0000000 
      47      0.030  2.5000000 
      48      0.000  0.0000000 
      49      0.030  2.5000000 
      50      0.000  0.0000000 
      51      0.030  2.5000000 
      52      0.030  2.5000000 
      53      0.030  2.5000000 
      54      0.000  0.0000000 
      55      0.030  2.5000000 
      56      0.000  0.0000000 
      57      0.030  2.5000000 
      58      0.000  0.0000000 
      59      0.030  2.5000000 
      60      0.000  0.0000000 
      61      0.030  2.5000000 
      62      0.000  0.0000000 
      63      0.030  2.5000000 
      64      0.000  0.0000000 
      65      0.030  2.5000000 
      66      0.000  0.0000000 

Bond Coeffs 

       1   320.0000     1.4100 
       2   268.0000     1.5290 
       3   320.0000     1.4100 
       4   320.0000     1.3800 
       5   320.0000     1.3800 
       6   320.0000     1.4100 
       7   268.0000     1.5290 
       8   320.0000     1.4100 
       9   320.0000     1.3800 
      10   320.0000     1.3800 
      11   320.0000     1.4100 
      12   268.0000     1.5290 
      13   320.0000     1.4100 
      14   268.0000     1.5290 
      15   320.0000     1.4100 
      16   268.0000     1.5290 
      17   320.0000     1.3800 
      18   320.0000     1.3800 
      19   268.0000     1.5290 
      20   268.0000     1.5290 
      21   320.0000     1.4100 
      22   268.0000     1.5290 
      23   320.0000     1.4100 
      24   268.0000     1.5290 
      25   320.0000     1.4100 
      26   268.0000     1.5290 
      27   320.0000     1.4100 
      28   268.0000     1.5290 
      29   320.0000     1.4100 
      30   268.0000     1.5290 
      31   320.0000     1.4100 
      32   268.0000     1.5290 
      33   320.0000     1.4100 
      34   553.0000     0.9450 
      35   340.0000     1.0900 
      36   340.0000     1.0900 
      37   340.0000     1.0900 
      38   340.0000     1.0900 
      39   340.0000     1.0900 
      40   340.0000     1.0900 
      41   340.0000     1.0900 
      42   340.0000     1.0900 
      43   340.0000     1.0900 
      44   340.0000     1.0900 
      45   553.0000     0.9450 
      46   340.0000     1.0900 
      47   553.0000     0.9450 
      48   340.0000     1.0900 
      49   553.0000     0.9450 
      50   340.0000     1.0900 
      51   340.0000     1.0900 
      52   340.0000     1.0900 
      53   553.0000     0.9450 
      54   340.0000     1.0900 
      55   553.0000     0.9450 
      56   340.0000     1.0900 
      57   553.0000     0.9450 
      58   340.0000     1.0900 
      59   553.0000     0.9450 
      60   340.0000     1.0900 
      61   553.0000     0.9450 
      62   340.0000     1.0900 
      63   553.0000     0.9450 
      64   340.0000     1.0900 
      65   553.0000     0.9450 
      66   320.0000     1.4100 
      67   268.0000     1.5290 
      68   268.0000     1.5290 

Angle Coeffs 

       1     50.000    109.500
       2     50.000    109.500
       3     60.000    109.500
       4     92.600    111.550
       5     60.000    109.500
       6     50.000    109.500
       7     50.000    109.500
       8     60.000    109.500
       9     92.600    111.550
      10     60.000    109.500
      11     50.000    109.500
      12     50.000    109.500
      13     58.350    112.700
      14     50.000    109.500
      15     58.350    112.700
      16     50.000    109.500
      17     50.000    109.500
      18     50.000    109.500
      19     58.350    112.700
      20     50.000    109.500
      21     50.000    109.500
      22     50.000    109.500
      23     58.350    112.700
      24     50.000    109.500
      25     58.350    112.700
      26     50.000    109.500
      27     50.000    109.500
      28     50.000    109.500
      29     58.350    112.700
      30     50.000    109.500
      31     58.350    112.700
      32     50.000    109.500
      33     55.000    108.500
      34     35.000    109.500
      35     35.000    109.500
      36     37.500    110.700
      37     35.000    109.500
      38     35.000    109.500
      39     35.000    109.500
      40     37.500    110.700
      41     35.000    109.500
      42     35.000    109.500
      43     37.500    110.700
      44     55.000    108.500
      45     37.500    110.700
      46     55.000    108.500
      47     37.500    110.700
      48     55.000    108.500
      49     37.500    110.700
      50     37.500    110.700
      51     37.500    110.700
      52     55.000    108.500
      53     37.500    110.700
      54     55.000    108.500
      55     37.500    110.700
      56     55.000    108.500
      57     37.500    110.700
      58     55.000    108.500
      59     37.500    110.700
      60     55.000    108.500
      61     37.500    110.700
      62     55.000    108.500
      63     37.500    110.700
      64     55.000    108.500
      65     50.000    109.500
      66     37.500    110.700
      67     37.500    110.700
      68     35.000    109.500
      69     50.000    109.500
      70     37.500    110.700
      71     50.000    109.500
      72     35.000    109.500
      73     35.000    109.500
      74     35.000    109.500
      75     50.000    109.500
      76     50.000    109.500
      77     35.000    109.500
      78     50.000    109.500
      79     35.000    109.500
      80     35.000    109.500
      81     50.000    109.500
      82     50.000    109.500
      83     35.000    109.500
      84     37.500    110.700
      85     37.500    110.700
      86     37.500    110.700
      87     60.000    109.500
      88     58.350    112.700
      89     50.000    109.500
      90     35.000    109.500
      91     58.350    112.700
      92     50.000    109.500
      93     37.500    110.700
      94     33.000    107.800
      95     35.000    109.500
      96     37.500    110.700
      97     50.000    109.500
      98     37.500    110.700
      99     33.000    107.800
     100     35.000    109.500
     101     35.000    109.500
     102     58.350    112.700
     103     50.000    109.500
     104     58.350    112.700
     105     37.500    110.700
     106     37.500    110.700
     107     35.000    109.500
     108     37.500    110.700
     109     33.000    107.800
     110     37.500    110.700
     111     35.000    109.500
     112     35.000    109.500
     113     37.500    110.700
     114     37.500    110.700
     115     37.500    110.700
     116     35.000    109.500
     117     35.000    109.500
     118     92.600    111.550
     119     50.000    109.500
     120     37.500    110.700
     121     58.350    112.700
     122     50.000    109.500
     123     37.500    110.700
     124     37.500    110.700

Dihedral Coeffs  

       1      4.319      0.000      0.000      0.000 
       2      0.650     -0.250      0.670      0.000 
       3     -0.375     -1.358      0.004      0.000 
       4     -0.375     -1.358      0.004      0.000 
       5      0.650     -0.250      0.670      0.000 
       6     -0.550      0.000      0.000      0.000 
       7      0.650     -0.250      0.670      0.000 
       8     -0.375     -1.358      0.004      0.000 
       9     -0.375     -1.358      0.004      0.000 
      10      0.650     -0.250      0.670      0.000 
      11      4.319      0.000      0.000      0.000 
      12     -1.552      0.000      0.000      0.000 
      13      1.711     -0.500      0.663      0.000 
      14     -1.552      0.000      0.000      0.000 
      15      4.319      0.000      0.000      0.000 
      16     -1.552      0.000      0.000      0.000 
      17      4.319      0.000      0.000      0.000 
      18     -1.552      0.000      0.000      0.000 
      19     -0.356     -0.174      0.492      0.000 
      20     -0.356     -0.174      0.492      0.000 
      21     -0.356     -0.174      0.492      0.000 
      22     -0.356     -0.174      0.492      0.000 
      23     -0.356     -0.174      0.492      0.000 
      24     -0.356     -0.174      0.492      0.000 
      25     -0.356     -0.174      0.492      0.000 
      26     -0.356     -0.174      0.492      0.000 
      27     -0.356     -0.174      0.492      0.000 
      28     -0.356     -0.174      0.492      0.000 
      29     -0.356     -0.174      0.492      0.000 
      30      9.508      0.000      0.000      0.000 
      31     -1.552      0.000      0.000      0.000 
      32      0.000      0.000      0.300      0.000 
      33      0.000      0.000      0.300      0.000 
      34      0.000      0.000      0.468      0.000 
      35     -0.356     -0.174      0.492      0.000 
      36     -0.356     -0.174      0.492      0.000 
      37      0.000      0.000      0.760      0.000 
      38      1.711     -0.500      0.663      0.000 
      39      0.000      0.000      0.760      0.000 
      40      0.000      0.000      0.300      0.000 
      41      0.000      0.000      0.352      0.000 
      42      0.000      0.000      0.468      0.000 
      43      1.711     -0.500      0.663      0.000 
      44      0.000      0.000      0.300      0.000 
      45     -0.356     -0.174      0.492      0.000 
      46      1.711     -0.500      0.663      0.000 
      47      1.300     -0.200      0.200      0.000 
      48      1.300     -0.200      0.200      0.000 
      49      0.000      0.000      0.468      0.000 
      50     -1.552      0.000      0.000      0.000 
      51      4.319      0.000      0.000      0.000 
      52      0.000      0.000      0.352      0.000 
      53      0.650     -0.250      0.670      0.000 
      54      0.000      0.000      0.468      0.000 
      55      0.000      0.000      0.300      0.000 
      56      0.000      0.000      0.300      0.000 
      57      0.000      0.000      0.300      0.000 
      58      0.000      0.000      0.468      0.000 
      59      0.000      0.000      0.300      0.000 
      60      0.000      0.000      0.300      0.000 
      61      0.000      0.000      0.300      0.000 
      62      0.000      0.000      0.468      0.000 
      63      4.319      0.000      0.000      0.000 
      64      0.000      0.000      0.300      0.000 
      65      0.000      0.000      0.352      0.000 
      66      0.000      0.000      0.300      0.000 
      67      0.000      0.000      0.352      0.000 
      68      0.000      0.000      0.468      0.000 
      69      0.000      0.000      0.300      0.000 
      70      1.711     -0.500      0.663      0.000 
      71      9.508      0.000      0.000      0.000 
      72      0.000      0.000      0.468      0.000 
      73      0.000      0.000      0.468      0.000 
      74      0.000      0.000      0.300      0.000 
      75      1.300     -0.200      0.200      0.000 
      76      0.000      0.000      0.300      0.000 
      77      0.000      0.000      0.300      0.000 
      78      0.000      0.000      0.300      0.000 
      79      0.000      0.000      0.300      0.000 
      80      0.000      0.000      0.468      0.000 
      81      0.000      0.000      0.760      0.000 
      82      0.000      0.000      0.468      0.000 
      83      0.000      0.000      0.468      0.000 
      84      0.000      0.000      0.352      0.000 
      85      1.711     -0.500      0.663      0.000 
      86      1.711     -0.500      0.663      0.000 
      87      0.000      0.000      0.468      0.000 
      88      0.000      0.000      0.468      0.000 
      89      1.300     -0.200      0.200      0.000 
      90      9.508      0.000      0.000      0.000 
      91      0.000      0.000      0.300      0.000 
      92     -0.356     -0.174      0.492      0.000 
      93     -1.552      0.000      0.000      0.000 
      94      1.711     -0.500      0.663      0.000 
      95      1.300     -0.200      0.200      0.000 
      96     -1.552      0.000      0.000      0.000 
      97      0.000      0.000      0.468      0.000 
      98     -1.552      0.000      0.000      0.000 
      99      0.000      0.000      0.300      0.000 
     100      0.000      0.000      0.760      0.000 
     101      1.300     -0.200      0.200      0.000 
     102      0.650     -0.250      0.670      0.000 
     103     -1.552      0.000      0.000      0.000 
     104      0.000      0.000      0.300      0.000 
     105      0.000      0.000      0.300      0.000 
     106      0.000      0.000      0.468      0.000 
     107      0.000      0.000      0.300      0.000 
     108      4.319      0.000      0.000      0.000 
     109      0.000      0.000      0.300      0.000 
     110      0.000      0.000      0.352      0.000 
     111      0.650     -0.250      0.670      0.000 
     112      4.319      0.000      0.000      0.000 
     113      0.000      0.000      0.300      0.000 
     114      0.000      0.000      0.352      0.000 
     115      0.000      0.000      0.352      0.000 
     116      0.000      0.000      0.760      0.000 
     117      0.000      0.000      0.300      0.000 
     118      0.000      0.000      0.300      0.000 
     119      0.000      0.000      0.468      0.000 
     120      0.000      0.000      0.760      0.000 
     121      0.000      0.000      0.468      0.000 
     122      1.300     -0.200      0.200      0.000 
     123      0.000      0.000      0.468      0.000 
     124      9.508      0.000      0.000      0.000 
     125      0.000      0.000      0.468      0.000 
     126      0.000      0.000      0.468      0.000 
     127      0.000      0.000      0.760      0.000 
     128      0.000      0.000      0.300      0.000 
     129      0.000      0.000      0.300      0.000 
     130      0.000      0.000      0.300      0.000 
     131      0.650     -0.250      0.670      0.000 
     132      0.000      0.000      0.468      0.000 
     133      0.000      0.000      0.300      0.000 
     134      0.000      0.000      0.300      0.000 
     135      0.000      0.000      0.352      0.000 
     136      0.650     -0.250      0.670      0.000 
     137      4.319      0.000      0.000      0.000 
     138      1.711     -0.500      0.663      0.000 
     139     -1.257     -1.806      0.003      0.000 
     140     -0.356     -0.174      0.492      0.000 
     141      0.000      0.000      0.468      0.000 
     142     -0.356     -0.174      0.492      0.000 
     143      1.711     -0.500      0.663      0.000 
     144      0.000      0.000      0.300      0.000 
     145     -1.552      0.000      0.000      0.000 
     146      0.000      0.000      0.300      0.000 
     147      0.000      0.000      0.468      0.000 
     148      0.000      0.000      0.468      0.000 
     149      0.650     -0.250      0.670      0.000 
     150      0.650     -0.250      0.670      0.000 
     151      0.000      0.000      0.300      0.000 
     152      1.300     -0.200      0.200      0.000 
     153     -1.552      0.000      0.000      0.000 
     154      0.000      0.000      0.352      0.000 
     155      9.508      0.000      0.000      0.000 
     156      1.300     -0.200      0.200      0.000 
     157     -0.356     -0.174      0.492      0.000 
     158      0.000      0.000      0.468      0.000 
     159      0.000      0.000      0.760      0.000 
     160     -1.552      0.000      0.000      0.000 
     161      0.000      0.000      0.468      0.000 
     162      0.000      0.000      0.468      0.000 
     163      0.000      0.000      0.300      0.000 
     164      0.000      0.000      0.300      0.000 
     165      1.711     -0.500      0.663      0.000 
     166      0.000      0.000      0.468      0.000 
     167      0.000      0.000      0.300      0.000 
     168     -0.550      0.000      0.000      0.000 
     169      9.508      0.000      0.000      0.000 
     170      0.650     -0.250      0.670      0.000 
     171      0.000      0.000      0.352      0.000 
     172      0.000      0.000      0.300      0.000 
     173      0.000      0.000      0.352      0.000 
     174      0.000      0.000      0.300      0.000 
     175      0.000      0.000      0.468      0.000 
     176     -0.356     -0.174      0.492      0.000 
     177      0.000      0.000      0.300      0.000 
     178      0.000      0.000      0.352      0.000 
     179      0.650     -0.250      0.670      0.000 
     180      0.000      0.000      0.300      0.000 
     181      0.000      0.000      0.760      0.000 
     182      0.000      0.000      0.468      0.000 
     183      0.000      0.000      0.300      0.000 
     184      0.000      0.000      0.300      0.000 
     185      1.711     -0.500      0.663      0.000 
     186     -1.552      0.000      0.000      0.000 
     187      4.319      0.000      0.000      0.000 
     188      0.000      0.000      0.760      0.000 
     189      0.000      0.000      0.468      0.000 
     190      0.000      0.000      0.300      0.000 
     191     -0.375     -1.358      0.004      0.000 
     192      0.000      0.000      0.468      0.000 
     193      0.000      0.000      0.760      0.000 
     194      0.650     -0.250      0.670      0.000 
     195      0.000      0.000      0.468      0.000 
     196      0.000      0.000      0.468      0.000 
     197     -1.552      0.000      0.000      0.000 
     198      0.000      0.000      0.468      0.000 

Improper Coeffs 

       1      0.000      -1       2 
       2      0.000      -1       2 
       3      0.000      -1       2 
       4      0.000      -1       2 
       5      0.000      -1       2 
       6      0.000      -1       2 
       7      0.000      -1       2 
       8      0.000      -1       2 
       9      0.000      -1       2 
      10      0.000      -1       2 
      11      0.000      -1       2 
      12      0.000      -1       2 
      13      0.000      -1       2 
      14      0.000      -1       2 
      15      0.000      -1       2 
      16      0.000      -1       2 
      17      0.000      -1       2 
      18      0.000      -1       2 
      19      0.000      -1       2 
      20      0.000      -1       2 
      21      0.000      -1       2 
      22      0.000      -1       2 
      23      0.000      -1       2 
      24      0.000      -1       2 
      25      0.000      -1       2 
      26      0.000      -1       2 
      27      0.000      -1       2 
      28      0.000      -1       2 
      29      0.000      -1       2 
      30      0.000      -1       2 
      31      0.000      -1       2 
      32      0.000      -1       2 
      33      0.000      -1       2 
      34      0.000      -1       2 

Atoms 

     1      1      1 -0.60710000    1.000  1.00000  0.00000
     2      1      2 -0.02460000   -0.424  1.00000  0.00000
     3      1      3 0.05780000   -1.018  1.00000  1.41479
     4      1      4 -0.40830000   -0.758 -0.24448  2.09341
     5      1      5 0.19600000    0.575 -0.40640  2.59101
     6      1      6 -0.37330000    0.653 -1.65145  3.31397
     7      1      7 -0.02490000    0.400 -2.75682  2.43638
     8      1      8 0.04560000    0.666 -4.09787  3.13903
     9      1      9 -0.39370000   -0.116 -4.28726  4.32500
    10      1     10 0.19790000   -1.518 -4.44011  4.16759
    11      1     11 -0.39700000   -2.121 -4.61938  5.46654
    12      1     12 0.02750000   -2.087 -3.43608  6.30933
    13      1     13 0.02010000   -2.850 -3.78647  7.59866
    14      1     14 -0.58100000   -4.197 -4.20345  7.32043
    15      1     15 -0.03690000   -2.126 -4.89907  8.37349
    16      1     16 -0.59310000   -2.748 -5.07707  9.66419
    17      1     17 0.22710000   -0.647 -4.53483  8.59728
    18      1     18 -0.61280000   -0.528 -3.56329  9.63067
    19      1     19 -0.33620000    0.000 -4.06305  7.42714
    20      1     20 -0.01600000   -0.663 -3.01007  6.71567
    21      1     21 -0.01730000   -0.601 -1.65738  7.43735
    22      1     22 -0.58070000    0.767 -1.28928  7.61016
    23      1     23 -0.00010000   -1.760 -5.73616  3.36785
    24      1     24 -0.59720000   -1.223 -6.85621  4.11411
    25      1     25 0.03040000   -1.022 -5.64645  2.02320
    26      1     26 -0.55170000   -1.184 -6.86207  1.29347
    27      1     27 0.01140000    0.469 -5.29373  2.18867
    28      1     28 -0.57870000    1.162 -6.43488  2.72149
    29      1     29 -0.00030000    0.944  0.73457  3.55338
    30      1     30 -0.60570000    0.053  0.71854  4.69529
    31      1     31 0.04140000    0.791  2.08501  2.83093
    32      1     32 -0.56100000    1.049  3.15964  3.74088
    33      1     33 0.01370000   -0.621  2.21878  2.26845
    34      1     34 -0.59590000   -1.570  2.32714  3.36278
    35      1     35 0.42090000    1.289  0.92676 -0.92856
    36      1     36 0.08960000   -0.748  0.10334 -0.53768
    37      1     37 0.08960000   -0.756  1.88795 -0.55537
    38      1     38 0.15880000   -2.107  1.01688  1.28950
    39      1     39 0.13000000    1.297 -0.45422  1.77145
    40      1     40 0.09950000    1.061 -2.67925  1.56600
    41      1     41 0.09950000   -0.638 -2.69750  2.09956
    42      1     42 0.17430000    1.701 -4.08723  3.49959
    43      1     43 0.12000000   -1.969 -3.57090  3.67596
    44      1     44 0.13190000   -2.616 -2.63714  5.77762
    45      1     45 0.15410000   -2.954 -2.90113  8.23685
    46      1     46 0.42820000   -4.140 -4.89226  6.63066
    47      1     47 0.13720000   -2.217 -5.84616  7.82440
    48      1     48 0.43670000   -3.657 -4.72135  9.60389
    49      1     49 0.15730000   -0.116 -5.42529  8.94739
    50      1     50 0.44000000   -1.342 -3.64997 10.16411
    51      1     51 0.18490000   -0.047 -2.84355  5.83652
    52      1     52 0.10750000   -1.078 -1.64857  8.41722
    53      1     53 0.10750000   -1.078 -0.88575  6.82593
    54      1     54 0.43310000    1.185 -2.05612  8.05372
    55      1     55 0.13890000   -2.828 -5.93655  3.23486
    56      1     56 0.44090000   -1.314 -6.60555  5.05642
    57      1     57 0.13410000   -1.479 -4.84830  1.41919
    58      1     58 0.43560000   -0.706 -7.53681  1.81867
    59      1     59 0.15330000    0.916 -5.09629  1.21218
    60      1     60 0.43960000    0.716 -6.67166  3.56300
    61      1     61 0.13880000    1.957  0.62528  3.94716
    62      1     62 0.44630000    0.239 -0.14152  5.12480
    63      1     63 0.16840000    1.535  2.16477  2.03403
    64      1     64 0.43120000    0.366  3.07887  4.43641
    65      1     65 0.15490000   -0.729  3.14899  1.69869
    66      1     66 0.44170000   -1.341  1.61186  3.99218

Bonds 

     1      1      2      1
     2      2      3      2
     3      3      4      3
     4      4      5      4
     5      5      6      5
     6      6      7      6
     7      7      8      7
     8      8      9      8
     9      9     10      9
    10     10     11     10
    11     11     12     11
    12     12     13     12
    13     13     14     13
    14     14     15     13
    15     15     16     15
    16     16     17     15
    17     17     18     17
    18     18     19     17
    19     19     20     12
    20     20     21     20
    21     21     22     21
    22     22     23     10
    23     23     24     23
    24     24     25     23
    25     25     26     25
    26     26     27      8
    27     27     28     27
    28     28     29      5
    29     29     30     29
    30     30     31     29
    31     31     32     31
    32     32     33      3
    33     33     34     33
    34     34     35      1
    35     35     36      2
    36     36     37      2
    37     37     38      3
    38     38     39      5
    39     39     40      7
    40     40     41      7
    41     41     42      8
    42     42     43     10
    43     43     44     12
    44     44     45     13
    45     45     46     14
    46     46     47     15
    47     47     48     16
    48     48     49     17
    49     49     50     18
    50     50     51     20
    51     51     52     21
    52     52     53     21
    53     53     54     22
    54     54     55     23
    55     55     56     24
    56     56     57     25
    57     57     58     26
    58     58     59     27
    59     59     60     28
    60     60     61     29
    61     61     62     30
    62     62     63     31
    63     63     64     32
    64     64     65     33
    65     65     66     34
    66     66     20     19
    67     67     27     25
    68     68     33     31

Angles 

     1      1      1      2      3
     2      2      2      3      4
     3      3      3      4      5
     4      4      4      5      6
     5      5      5      6      7
     6      6      6      7      8
     7      7      7      8      9
     8      8      8      9     10
     9      9      9     10     11
    10     10     10     11     12
    11     11     11     12     13
    12     12     12     13     14
    13     13     12     13     15
    14     14     13     15     16
    15     15     13     15     17
    16     16     15     17     18
    17     17     15     17     19
    18     18     11     12     20
    19     19     12     20     21
    20     20     20     21     22
    21     21      9     10     23
    22     22     10     23     24
    23     23     10     23     25
    24     24     23     25     26
    25     25      7      8     27
    26     26      8     27     28
    27     27      4      5     29
    28     28      5     29     30
    29     29      5     29     31
    30     30     29     31     32
    31     31      2      3     33
    32     32      3     33     34
    33     33      2      1     35
    34     34      1      2     36
    35     35      1      2     37
    36     36      2      3     38
    37     37      4      5     39
    38     38      6      7     40
    39     39      6      7     41
    40     40      7      8     42
    41     41      9     10     43
    42     42     11     12     44
    43     43     12     13     45
    44     44     13     14     46
    45     45     13     15     47
    46     46     15     16     48
    47     47     15     17     49
    48     48     17     18     50
    49     49     12     20     51
    50     50     20     21     52
    51     51     20     21     53
    52     52     21     22     54
    53     53     10     23     55
    54     54     23     24     56
    55     55     23     25     57
    56     56     25     26     58
    57     57      8     27     59
    58     58     27     28     60
    59     59      5     29     61
    60     60     29     30     62
    61     61     29     31     63